#     Step Nr.          Time[fs]        Kin.[a.u.]          Temp[K]            Pot.[a.u.]        Cons Qty[a.u.]        UsedTime[s]
         0            0.000000         1.021772971       900.000000000     -3358.025974047     -3357.002776010         0.000000000
         1            0.500000         1.005544348       885.705473712     -3358.009584828     -3357.002237031       207.560814079
         2            1.000000         0.968565785       853.133945873     -3357.971832600     -3357.001095777        31.380072471
         3            1.500000         0.927694765       817.133856975     -3357.930114557     -3356.999898103        30.598914128
         4            2.000000         0.900400867       793.092794656     -3357.902588429     -3356.999331922        28.469946824
         5            2.500000         0.895188374       788.501516667     -3357.898016281     -3356.999649442        29.805199020
         6            3.000000         0.908083235       799.859592033     -3357.912015908     -3357.000435464        26.629714858
         7            3.500000         0.927813649       817.238572656     -3357.932758611     -3357.001128277        26.468917437
         8            4.000000         0.943569409       831.116591001     -3357.949206008     -3357.001498544        24.852812059
         9            4.500000         0.948943066       835.849825564     -3357.955011596     -3357.001609113        25.809680417
        10            5.000000         0.941793842       829.552632840     -3357.948131427     -3357.001560503        24.487232961
        11            5.500000         0.923111426       813.096752064     -3357.929547391     -3357.001349226        26.145927511
        12            6.000000         0.896928649       790.034388592     -3357.903222057     -3357.000908847        27.040590927
        13            6.500000         0.870955678       767.156827131     -3357.876862343     -3357.000238171        29.378117085
        14            7.000000         0.855977889       753.964063150     -3357.861486775     -3356.999569316        29.105327852
        15            7.500000         0.861825216       759.114516808     -3357.867435467     -3356.999407876        28.473503191
        16            8.000000         0.890155159       784.068150510     -3357.896756729     -3357.000137872        28.628347691
        17            8.500000         0.929972871       819.140462646     -3357.938100514     -3357.001398210        24.221121132
        18            9.000000         0.962914641       848.156295002     -3357.972250860     -3357.002334654        24.331129465
        19            9.500000         0.974772906       858.601313967     -3357.984519604     -3357.002469412        22.860519871
        20           10.000000         0.963041811       848.268309269     -3357.972424204     -3357.001831672        26.228772387
        21           10.500000         0.937155666       825.467226151     -3357.945696309     -3357.000724543        26.849882189
        22           11.000000         0.913689306       804.797542186     -3357.921424885     -3356.999664750        26.582988434
        23           11.500000         0.908265912       800.020498257     -3357.915824963     -3356.999242138        27.285952121
        24           12.000000         0.927174290       816.675411069     -3357.935400448     -3356.999666254        27.384732567
        25           12.500000         0.964517807       849.568398816     -3357.973862699     -3357.000538760        26.156370763
        26           13.000000         1.007418095       887.355911137     -3358.017767768     -3357.001289519        25.178600818
        27           13.500000         1.044103771       919.669458078     -3358.055067528     -3357.001640000        25.926451690
        28           14.000000         1.068396512       941.067036022     -3358.079640863     -3357.001647997        24.642112412
        29           14.500000         1.079634751       950.965922680     -3358.090958837     -3357.001448100        24.789591335
        30           15.000000         1.081006206       952.173930705     -3358.092265532     -3357.001098981        24.978067666
        31           15.500000         1.078419797       949.895765244     -3358.089508251     -3357.000640712        27.371661909
        32           16.000000         1.079512246       950.858017693     -3358.090435459     -3357.000185153        26.176447824
        33           16.500000         1.091801354       961.682533420     -3358.102723560     -3356.999888775        30.715127703
        34           17.000000         1.119962203       986.487225404     -3358.131266558     -3356.999966028        27.452964906
        35           17.500000         1.162379915      1023.849675160     -3358.174665912     -3357.000627320        27.130696435
        36           18.000000         1.208950995      1064.870501572     -3358.222587256     -3357.001636407        24.880471613
        37           18.500000         1.244944393      1096.574274723     -3358.259636651     -3357.002328044        22.486944020
        38           19.000000         1.260003012      1109.838235749     -3358.275051371     -3357.002298554        24.954790723
        39           19.500000         1.254123727      1104.659633131     -3358.268926564     -3357.001651394        24.567782793
        40           20.000000         1.236608042      1089.231434050     -3358.250956087     -3357.000784470        24.370982036
        41           20.500000         1.220405078      1074.959508694     -3358.234508177     -3357.000119860        27.276648529
        42           21.000000         1.215709795      1070.823800849     -3358.230049007     -3356.999927749        27.869710620
        43           21.500000         1.225709890      1079.632103278     -3358.240805250     -3357.000242832        26.690262549
        44           22.000000         1.245911785      1097.426374429     -3358.262077911     -3357.000854448        26.151528031
        45           22.500000         1.267092247      1116.082588623     -3358.284327291     -3357.001442520        25.408548892
        46           23.000000         1.280153445      1127.587178036     -3358.298203244     -3357.001754437        24.988030609
        47           23.500000         1.279982633      1127.436722774     -3358.298540196     -3357.001740527        24.129145239
        48           24.000000         1.266458718      1115.524562374     -3358.285312812     -3357.001501978        25.081853095
        49           24.500000         1.243224334      1095.059208988     -3358.262276950     -3357.001157969        24.865995970
        50           25.000000         1.215944664      1071.030678260     -3358.235176755     -3357.000792312        27.287850592
        51           25.500000         1.190775528      1048.861152406     -3358.210241038     -3357.000480539        26.746613003
        52           26.000000         1.173042084      1033.241146758     -3358.192856085     -3357.000283498        27.449950360
        53           26.500000         1.165969343      1027.011321806     -3358.186372744     -3357.000324129        26.503462318
        54           27.000000         1.168570772      1029.302716843     -3358.190003703     -3357.000797412        26.732781578
        55           27.500000         1.173510219      1033.653490520     -3358.196271962     -3357.001559541        27.363016963
        56           28.000000         1.169777043      1030.365226702     -3358.193588986     -3357.002033936        25.144251820
        57           28.500000         1.150353339      1013.256403015     -3358.174578188     -3357.001868258        25.303183608
        58           29.000000         1.117090669       983.957915226     -3358.141265241     -3357.001245327        24.503619712
        59           29.500000         1.078452955       949.924970816     -3358.102576403     -3357.000634454        27.495514546
        60           30.000000         1.043426230       919.072664783     -3358.067784578     -3357.000325262        26.078852352
        61           30.500000         1.017158255       895.935257365     -3358.042026306     -3357.000305302        26.953878853
        62           31.000000         1.000543635       881.300736726     -3358.026062797     -3357.000437819        26.054377448
        63           31.500000         0.991591730       873.415702307     -3358.017876601     -3357.000692386        26.926976100
        64           32.000000         0.986185860       868.654094042     -3358.013324841     -3357.001040382        26.912488941
        65           32.500000         0.979006223       862.330112599     -3358.006929453     -3357.001323377        26.849709865
        66           33.000000         0.965868147       850.757808052     -3357.994332134     -3357.001370058        27.224147804
        67           33.500000         0.946012564       833.268575167     -3357.974760206     -3357.001170612        25.868050285
        68           34.000000         0.922318189       812.398051275     -3357.951221660     -3357.000857775        26.997559663
        69           34.500000         0.899518954       792.315986438     -3357.928612958     -3357.000595692        29.118742682
        70           35.000000         0.881847116       776.750244413     -3357.911265329     -3357.000482615        28.538278941
        71           35.500000         0.871565013       767.693543104     -3357.901411774     -3357.000486687        29.152622629
        72           36.000000         0.868969495       765.407353790     -3357.899316802     -3357.000572226        28.793990210
        73           36.500000         0.872479557       768.499092796     -3357.903504092     -3357.000840707        29.897047881
        74           37.000000         0.877651464       773.054621978     -3357.909539746     -3357.001300055        28.097945049
        75           37.500000         0.877917402       773.288866489     -3357.910494129     -3357.001589062        26.262896921
        76           38.000000         0.869174639       765.588049507     -3357.901987194     -3357.001433583        27.991399337
        77           38.500000         0.853177046       751.497018581     -3357.885969828     -3357.001034521        26.249050219
        78           39.000000         0.835268173       735.722491338     -3357.868136066     -3357.000744797        29.368870161
        79           39.500000         0.819867090       722.156880780     -3357.853004639     -3357.000664377        28.876750734
        80           40.000000         0.808832169       712.437080301     -3357.842284200     -3357.000642425        28.799649693
        81           40.500000         0.802932726       707.240722117     -3357.836658878     -3357.000592009        28.453339756
        82           41.000000         0.802729912       707.062079282     -3357.836828875     -3357.000650115        31.748746242
        83           41.500000         0.807049754       710.867090504     -3357.841717548     -3357.000912068        28.436742995
        84           42.000000         0.812120358       715.333389740     -3357.847363828     -3357.001187602        30.437232647
        85           42.500000         0.814005680       716.994022265     -3357.849596218     -3357.001241617        29.779141266
        86           43.000000         0.811740539       714.998836136     -3357.847431955     -3357.001057811        29.394300010
        87           43.500000         0.807765248       711.497313494     -3357.843474291     -3357.000800196        28.310965154
        88           44.000000         0.805741085       709.714385791     -3357.841576890     -3357.000661197        28.538651846
        89           44.500000         0.807813274       711.539615565     -3357.843972057     -3357.000726936        29.985049877
        90           45.000000         0.813382192       716.444840385     -3357.849966725     -3357.000902718        26.099221680
        91           45.500000         0.820318284       722.554302357     -3357.857247733     -3357.001004073        27.876558855
        92           46.000000         0.827221113       728.634465186     -3357.864382611     -3357.000998630        29.832956433
        93           46.500000         0.833791290       734.421620678     -3357.871237164     -3357.001051486        28.504579626
        94           47.000000         0.839129772       739.123872241     -3357.876928485     -3357.001178849        28.234180488
        95           47.500000         0.841650074       741.343809992     -3357.879680754     -3357.001191803        27.820767120
        96           48.000000         0.841082911       740.844240142     -3357.879214174     -3357.001080548        26.588213388
        97           48.500000         0.838789811       738.824427396     -3357.877027879     -3357.000983304        26.812157162
        98           49.000000         0.836322145       736.650853348     -3357.874687345     -3357.000914460        27.040625725
        99           49.500000         0.835151246       735.619499668     -3357.873570508     -3357.000780541        33.858461786
       100           50.000000         0.837428953       737.625753915     -3357.875878784     -3357.000630615        28.341825128
       101           50.500000         0.845024412       744.316000048     -3357.883701428     -3357.000683793        27.723458249
       102           51.000000         0.856951727       754.821840380     -3357.896077277     -3357.000963625        30.812093493
       103           51.500000         0.869275208       765.676632845     -3357.908797264     -3357.001195964        26.124906164
       104           52.000000         0.878575115       773.868193977     -3357.918236825     -3357.001175907        26.701878123
       105           52.500000         0.884810673       779.360610540     -3357.924414014     -3357.000962574        28.246590156
       106           53.000000         0.890762935       784.603493196     -3357.930313301     -3357.000759489        26.823563334
       107           53.500000         0.899269975       792.096679728     -3357.938943982     -3357.000737494        26.216856778
       108           54.000000         0.910738006       802.197972233     -3357.950743554     -3357.000927153        25.993914273
       109           54.500000         0.922774681       812.800139181     -3357.963166755     -3357.001174898        28.342985000
       110           55.000000         0.932369094       821.251108005     -3357.972970552     -3357.001248333        25.824652225
       111           55.500000         0.938958597       827.055287263     -3357.979500523     -3357.001055736        26.292571347
       112           56.000000         0.945217231       832.568028463     -3357.985676062     -3357.000842443        28.619254354
       113           56.500000         0.953818208       840.143957318     -3357.994462808     -3357.000900489        27.172437429
       114           57.000000         0.964021326       849.131087442     -3358.005006010     -3357.001114719        26.288944032
       115           57.500000         0.972807652       856.870275286     -3358.014049458     -3357.001247439        26.052462142
       116           58.000000         0.977994458       861.438927804     -3358.019345407     -3357.001233591        28.358404562
       117           58.500000         0.979725069       862.963287449     -3358.021015691     -3357.001051903        25.790123384
       118           59.000000         0.980716512       863.836572561     -3358.021838199     -3357.000763404        26.400543500
       119           59.500000         0.984916836       867.536310153     -3358.026013591     -3357.000620494        28.290260270
       120           60.000000         0.994088090       875.614551056     -3358.035479814     -3357.000798379        26.924696550
       121           60.500000         1.005755098       885.891107162     -3358.047569100     -3357.001103619        26.082644284
       122           61.000000         1.015647547       894.604592462     -3358.057703689     -3357.001228200        25.965384327
       123           61.500000         1.021771743       899.998918851     -3358.063815685     -3357.001097769        28.167845558
       124           62.000000         1.025729464       903.484965852     -3358.067648319     -3357.000853810        26.650213532
       125           62.500000         1.030886705       908.027576895     -3358.072770254     -3357.000698824        26.120840028
       126           63.000000         1.039512069       915.624986426     -3358.081572638     -3357.000754801        28.411960039
       127           63.500000         1.051014901       925.756932165     -3358.093427879     -3357.000983984        27.032297131
       128           64.000000         1.062459441       935.837534273     -3358.105228917     -3357.001214303        26.032011300
       129           64.500000         1.070953229       943.319048329     -3358.113890992     -3357.001253026        26.016429607
       130           65.000000         1.076217428       947.955869885     -3358.119080462     -3357.001045239        28.471737210
       131           65.500000         1.081018989       952.185190292     -3358.123806238     -3357.000832799        26.927669805
       132           66.000000         1.087897993       958.244367428     -3358.130917964     -3357.000924859        26.623021688
       133           66.500000         1.095546382       964.981235534     -3358.138995196     -3357.001208443        29.011641946
       134           67.000000         1.100075632       968.970698271     -3358.143826195     -3357.001360059        26.341694906
       135           67.500000         1.099169374       968.172446440     -3358.142969037     -3357.001254474        26.337448332
       136           68.000000         1.094214824       963.808370784     -3358.137879459     -3357.000960909        26.502233624
       137           68.500000         1.089297364       959.476963684     -3358.132866228     -3357.000703302        27.623607494
       138           69.000000         1.087884103       958.232132537     -3358.131637720     -3357.000722913        26.764623635
       139           69.500000         1.089777619       959.899983052     -3358.133945687     -3357.000968480        26.024734944
       140           70.000000         1.091713042       961.604746087     -3358.136243191     -3357.001157583        28.257978030
       141           70.500000         1.090933031       960.917695416     -3358.135609398     -3357.001126842        26.059448034
       142           71.000000         1.087609236       957.990024173     -3358.132283961     -3357.000944720        26.657070149
       143           71.500000         1.084182175       954.971393154     -3358.128876741     -3357.000780953        25.926055666
       144           72.000000         1.083035328       953.961225449     -3358.127896874     -3357.000761188        28.193877101
       145           72.500000         1.084590738       955.331265140     -3358.129781315     -3357.000899964        26.749933574
       146           73.000000         1.087002866       957.455920002     -3358.132602768     -3357.001115127        25.847978335
       147           73.500000         1.087321415       957.736504486     -3358.133295656     -3357.001291380        29.409885984
       148           74.000000         1.083310812       954.203877578     -3358.129484130     -3357.001289023        25.880250186
       149           74.500000         1.075462884       947.291251346     -3358.121576885     -3357.001025909        26.181894578
       150           75.000000         1.067488851       940.267548737     -3358.113533322     -3357.000751014        27.046548925
       151           75.500000         1.062840677       936.173334847     -3358.109168734     -3357.000827784        27.538306382
       152           76.000000         1.060481842       934.095621336     -3358.107341909     -3357.001151249        26.672910240
       153           76.500000         1.056028004       930.172583517     -3358.103305432     -3357.001358476        25.759399209
       154           77.000000         1.046436055       921.723784282     -3358.093847289     -3357.001281541        29.318793982
       155           77.500000         1.032696363       909.621563003     -3358.080010870     -3357.000974905        25.807885170
       156           78.000000         1.019031350       897.585120511     -3358.066262679     -3357.000683756        26.488826867
       157           78.500000         1.009353053       889.060265087     -3358.056778546     -3357.000672141        26.942051891
       158           79.000000         1.003897544       884.254933322     -3358.051743169     -3357.000888331        27.097363241
       159           79.500000         0.999768537       880.618013299     -3358.047982241     -3357.001054020        26.499518476
       160           80.000000         0.994470398       875.951296343     -3358.042853663     -3357.001022934        26.168794658
       161           80.500000         0.988050955       870.296910179     -3358.036491924     -3357.000882209        28.872031976
       162           81.000000         0.982213950       865.155548396     -3358.030755441     -3357.000786857        25.988337867
       163           81.500000         0.978267999       861.679868466     -3358.027027811     -3357.000811870        26.466970693
       164           82.000000         0.975965700       859.651953794     -3358.025042761     -3357.000938202        30.764085382
       165           82.500000         0.973621468       857.587102236     -3358.023063354     -3357.001114454        29.910022281
       166           83.000000         0.968945758       853.468634769     -3358.018700160     -3357.001241082        27.524917144
       167           83.500000         0.960694541       846.200782216     -3358.010534599     -3357.001144304        26.625431783
       168           84.000000         0.950804559       837.489469227     -3358.000482853     -3357.000804393        28.211257972
       169           84.500000         0.943965598       831.465563429     -3357.993606239     -3357.000593133        26.942969058
       170           85.000000         0.942763379       830.406621769     -3357.992806819     -3357.000826337        25.744300157
       171           85.500000         0.944082176       831.568247429     -3357.994698820     -3357.001233280        28.445197385
       172           86.000000         0.942231757       829.938357784     -3357.993200597     -3357.001422577        28.075750884
       173           86.500000         0.934235827       822.895368080     -3357.985232660     -3357.001291922        26.691141792
       174           87.000000         0.921769907       811.915112297     -3357.972575587     -3357.000947572        27.185742628
       175           87.500000         0.909602004       801.197356902     -3357.960250295     -3357.000643224        26.961464100
       176           88.000000         0.901917525       794.428700083     -3357.952674939     -3357.000611666        26.581086483
       177           88.500000         0.899263785       792.091227739     -3357.950343138     -3357.000798726        25.956542253
       178           89.000000         0.899126193       791.970033744     -3357.950498661     -3357.000962297        28.446558855
       179           89.500000         0.898972268       791.834453112     -3357.950495495     -3357.000988683        25.808537334
       180           90.000000         0.897962522       790.945046409     -3357.949569999     -3357.000953803        26.636626706
       181           90.500000         0.896248208       789.435040885     -3357.947971746     -3357.000956121        27.363210320
       182           91.000000         0.893697735       787.188529140     -3357.945584841     -3357.001011492        27.222751047
       183           91.500000         0.889561314       783.545078565     -3357.941623392     -3357.001084052        26.254855011
       184           92.000000         0.882859798       777.642236992     -3357.935082515     -3357.001148437        25.784979906
       185           92.500000         0.872963063       768.924975702     -3357.925259579     -3357.001132669        28.175293952
       186           93.000000         0.860741437       758.159900447     -3357.912907257     -3357.000919671        26.284661241
       187           93.500000         0.849725100       748.456469649     -3357.901637379     -3357.000591494        26.421759982
       188           94.000000         0.844337005       743.710517467     -3357.896263173     -3357.000538414        27.350332901
       189           94.500000         0.844994721       744.289848344     -3357.897352876     -3357.000910784        27.481913704
       190           95.000000         0.846531205       745.643216519     -3357.899359884     -3357.001328799        26.146787021
       191           95.500000         0.842778159       742.337451682     -3357.895796416     -3357.001473086        23.911460817
       192           96.000000         0.831172051       732.114537282     -3357.884087581     -3357.001332746        26.347321030
       193           96.500000         0.813516123       716.562809451     -3357.866143672     -3357.001015422        25.937434368
       194           97.000000         0.794421998       699.744286341     -3357.846733059     -3357.000678381        26.600751288
       195           97.500000         0.778848919       686.027177392     -3357.830985321     -3357.000492311        26.394936055
       196           98.000000         0.769631601       677.908362113     -3357.821798813     -3357.000521054        28.319429200
       197           98.500000         0.766493450       675.144209612     -3357.818819232     -3357.000687038        25.821458146
       198           99.000000         0.766990987       675.582451651     -3357.819490198     -3357.000877466        26.123792209
       199           99.500000         0.768127029       676.583102290     -3357.820747902     -3357.001025771        28.199759971
       200          100.000000         0.767483457       676.016229923     -3357.820145033     -3357.001102744        24.697120704
       201          100.500000         0.763789617       672.762614429     -3357.816404384     -3357.001101750        24.840840068
       202          101.000000         0.757037179       666.814919127     -3357.809550467     -3357.001055521        25.962485567
       203          101.500000         0.747996826       658.851978923     -3357.800410368     -3357.001020370        29.212066241
       204          102.000000         0.737593528       649.688526030     -3357.789877758     -3357.000964967        26.182933971
       205          102.500000         0.727327284       640.645794014     -3357.779338904     -3357.000775644        26.904301718
       206          103.000000         0.720311951       634.466534327     -3357.771977703     -3357.000522754        28.040738773
       207          103.500000         0.719738578       633.961494861     -3357.771344250     -3357.000566055        25.623958975
       208          104.000000         0.724648868       638.286586534     -3357.776540972     -3357.000967162        26.895009309
       209          104.500000         0.729498069       642.557868844     -3357.781602832     -3357.001306204        26.445034064
       210          105.000000         0.729265636       642.353136338     -3357.781237743     -3357.001311178        27.727254957
       211          105.500000         0.723357975       637.149539078     -3357.774936664     -3357.001065656        26.488616753
       212          106.000000         0.715046819       629.828891446     -3357.766159917     -3357.000757492        26.333011813
       213          106.500000         0.708787005       624.315110105     -3357.759530832     -3357.000555237        28.043351710
       214          107.000000         0.707644063       623.308381742     -3357.758188495     -3357.000533366        25.983770985
       215          107.500000         0.712166315       627.291680005     -3357.762613813     -3357.000625864        26.816398930
       216          108.000000         0.721028100       635.097334816     -3357.771417612     -3357.000770574        26.752880700
       217          108.500000         0.731900953       644.674381364     -3357.782270440     -3357.000967406        28.005961079
       218          109.000000         0.741824348       653.415124642     -3357.792147774     -3357.001152496        26.285271276
       219          109.500000         0.748274879       659.096893950     -3357.798390378     -3357.001189290        24.127029799
       220          110.000000         0.750866872       661.379977922     -3357.800588463     -3357.001052465        28.409248702
       221          110.500000         0.751570684       661.999911478     -3357.800865065     -3357.000893741        26.206802107
       222          111.000000         0.752776085       663.061654762     -3357.801752157     -3357.000855124        26.490195993
       223          111.500000         0.755477314       665.440956456     -3357.804197433     -3357.000890475        26.758307748
       224          112.000000         0.759791175       669.240699532     -3357.808151576     -3357.000834292        27.863953017
       225          112.500000         0.766714533       675.338944790     -3357.814635076     -3357.000711054        26.273227744
       226          113.000000         0.777417893       684.766698439     -3357.825115089     -3357.000818719        25.892295968
       227          113.500000         0.789930202       695.787814549     -3357.837637224     -3357.001175064        28.625383798